/*--------------------------------*- C++ -*----------------------------------*\
| =========                 |                                                 |
| \\      /  F ield         | OpenFOAM: The Open Source CFD Toolbox           |
|  \\    /   O peration     | Version:  5.0                                   |
|   \\  /    A nd           | Web:      www.OpenFOAM.org                      |
|    \\/     M anipulation  |                                                 |
\*---------------------------------------------------------------------------*/
FoamFile
{
    version     2.0;
    format      ascii;
    class       volScalarField;
    location    "2";
    object      quality;
}
// * * * * * * * * * * * * * * * * * * * * * * * * * * * * * * * * * * * * * //

dimensions      [0 0 0 0 0 0 0];

internalField nonuniform List<scalar>
1493(64.32632952 69.28755435 69.44805852 60.12885505 61.53592542
 61.53592542 64.65274358 56.01266229 57.57971772 62.48864832
 65.82554111 68.43786878 63.75761142 50.70168474 59.92917162
 61.85274405 72.71118409 66.62362752 71.46407883 69.67556338
 63.87300464 73.40013472 69.60931189 69.44805852 53.80300533
 63.63240637 49.87714064 51.82695162 61.83686205 54.45319123
 64.11696677 61.00430976 79.11130849 61.81193429 77.6283803
 70.48316464 74.8658716 59.13045331 57.81885659 79.27409431
 62.82746679 72.66411467 71.78075022 73.848441 62.0414342
 79.36495732 54.87922101 76.03049605 63.18382578 62.0282344
 79.85132416 79.12053471 71.48470398 75.68589081 62.97239611
 58.47359202 66.46500231 58.49310644 70.83533046 74.27525359
 78.65809079 44.36903368 77.09783175 62.01551001 63.59749718
 79.47000218 76.69471647 79.24472612 64.59071991 75.592295 59.3076951
 79.29257545 67.90942273 71.63424539 54.91053482 77.03403627
 49.0122834 77.36305013 68.06625281 61.09266892 53.72838471
 67.70493744 54.41671206 66.62362752 71.81171538 68.4640184
 74.01251496 74.01251496 68.91884145 71.10372633 68.43429988
 79.55138442 70.3261401 68.2942578 56.32458103 70.3261401
 70.07048085 77.2503721 73.17183374 67.23879338 74.95189966
 65.35434286 77.73905173 84.85586323 65.89556409 55.78297129
 55.78297129 66.78410863 65.23448418 80.80490561 78.8618073
 66.77423894 69.28755435 72.48780167 69.07181853 68.97379802
 66.25671405 78.77286026 73.53296689 67.1751289 67.97506074
 70.81624899 65.45497597 76.65740348 54.43886852 75.13725306
 75.13725306 62.82885772 80.62110229 71.41602997 76.93062068
 77.88230546 64.32632952 76.93062068 71.45614752 49.87714064
 79.38373642 57.74421097 61.72937201 71.02627458 54.10708658
 49.44253175 79.26083525 51.49591257 67.34316854 67.46093998
 54.2580955 54.15802455 74.6063144 56.20226734 72.11917937
 59.53763656 63.13471087 69.34392271 61.56196263 72.44259803
 57.93316854 72.48312065 60.994699 62.86691732 66.93236083
 79.19513446 62.36672535 69.37475729 73.07628959 62.36672535
 53.17493498 54.45319123 79.29732841 78.87403094 73.23842178
 72.7596484 74.33512242 65.03667466 79.4355952 69.52471211
 59.52767232 61.33103765 79.24952203 67.49373203 79.06800779
 74.7018015 69.87673138 58.59186291 78.50513246 60.4603857
 69.54278999 56.74145981 53.39623821 57.52811988 55.87132757
 65.97171238 40.93634795 78.27414475 61.47572375 54.83231115
 64.13062487 69.41085121 64.13062487 54.83231115 43.74455993
 75.64946224 60.77943674 62.66839661 61.91205277 69.42112841
 70.934163 62.66839661 72.68535624 71.48470398 59.07801709
 64.8917272 66.85407699 69.59724249 64.8917272 67.12570977
 68.59330779 67.22820459 69.76787621 77.28361455 73.13122621
 67.22820459 79.16139382 69.6226437 71.03037278 67.62514549
 75.51970694 75.51970694 71.03037278 58.92574271 71.06930712
 62.0630695 58.21015443 50.70168474 62.93501746 56.52733471
 57.12940187 78.39637327 78.40476036 63.96565966 61.15851012
 74.41938433 70.50251396 70.03419379 67.98038587 54.89728172
 64.78403984 73.3918489 67.98038587 72.77818926 70.84863604
 67.62176476 66.30493605 51.74438019 58.21728004 64.28298937
 56.0644643 62.6474588 70.02564917 77.29390667 59.49649242
 41.982085 46.2485162 64.0974603 46.2485162 62.73827001
 79.18335268 52.72965479 60.87194478 67.90473164 71.29184927
 67.90473164 73.18218293 79.27517677 65.81134718 58.86492807
 65.81134718 67.64047059 57.95100538 57.95100538 76.14011102
 58.79402221 50.58245605 54.68162828 66.98321878 54.68162828
 57.60773317 75.14694565 74.21526625 55.46958765 53.39623821
 63.05267886 67.53118194 69.58282316 63.05267886 79.76742025
 64.30711795 72.0149892 69.60931189 75.28546798 75.28546798
 76.88967681 75.20275672 70.96412539 51.74438019 67.04624567
 48.6989885 62.99784107 48.6989885 73.64514745 58.57514433
 64.78403984 71.31205204 59.58538859 53.48521011 62.63159595
 73.66673549 49.25107327 63.45658029 50.20733163 55.36259122
 46.99310194 57.49287246 66.82653322 63.85261193 64.97260115
 53.61783488 66.67228118 57.08964639 64.97260115 71.89022206
 62.79216951 58.72699685 51.82695162 62.79216951 48.56357672
 58.72699685 76.39103124 68.09221325 73.21711434 64.53959127
 76.48472964 73.01409919 65.76038793 79.32013102 67.81810974
 65.97473995 55.58658618 69.87201593 55.58658618 65.97473995
 78.40518528 71.76202096 59.78595658 53.84031143 78.4503001
 71.76202096 73.15715293 64.88372106 67.72756352 62.39854984
 68.12736396 43.74455993 56.33335144 69.76719086 75.64946224
 65.3755574 67.70758135 62.47702076 72.90472912 71.79892654
 63.48849407 63.18382578 79.40359568 79.18624568 79.36125072
 79.11130849 79.34683261 79.1294637 79.21963674 66.45523594
 56.01266229 69.54278999 65.97171238 64.74910102 60.30725982
 70.5109115 81.97044676 78.06683655 80.48867972 79.99055864
 61.00430976 78.06683655 64.73836667 60.30725982 64.41924402
 76.14210224 76.5616642 78.13966984 79.11040675 79.23276184
 76.66527799 80.27487797 55.50393477 54.96698641 55.50393477
 61.5764702 54.96698641 54.10708658 57.21532219 69.68828968
 67.15834196 68.22356255 70.80069018 49.13878302 65.82554111
 68.51428745 69.66853546 58.88857652 79.18469077 79.26649728
 79.34504778 79.27409431 79.33410945 79.31898936 79.31294357
 66.72437058 68.10970457 77.1594591 70.69900825 66.72437058
 56.09884291 75.15887615 71.5653321 68.22356255 79.89176027
 71.5653321 57.81885659 72.93576842 60.17012083 56.09884291
 68.67512101 78.13286876 79.29336523 78.68425785 68.26322698
 74.0117771 74.45733756 68.26322698 60.07581892 58.01714594
 51.60576877 48.66116055 35.75167947 58.09953808 49.13878302
 54.48482659 57.09580556 58.01714594 78.76458919 60.19691272
 63.26452142 59.04547864 64.7953832 59.49649242 72.76965175
 77.29042789 79.28030788 79.34504778 79.36495732 79.33444701
 79.37540537 79.36593503 77.6283803 76.4265596 54.87922101
 74.08063365 65.55669429 71.62132211 60.15226851 77.1594591
 74.29427062 56.45286939 56.45286939 60.19691272 56.78881015
 57.11732279 67.39604468 79.54093979 79.37967283 75.06844084
 76.76423638 79.2537623 78.94810107 79.2537623 70.28561947
 60.94495706 69.57010301 70.51221757 61.91205277 72.52303953
 56.78881015 66.75719189 57.57971772 58.08521095 71.93464519
 72.44992567 55.46958765 57.21532219 60.42811558 59.44393805
 56.79659003 63.06290022 64.87370098 76.69120453 78.71688054
 79.3168471 79.18945462 79.16488344 78.8049582 79.26030071
 69.90354001 75.27234342 74.46479182 69.90354001 74.16834669
 74.46479182 61.19310795 78.67508282 68.00322392 62.7270682
 59.33434661 56.79659003 62.7270682 57.03497932 57.03497932
 78.3110788 80.79103747 73.82052522 76.95344631 78.3110788
 79.69366279 78.48879279 66.50643244 59.78983371 63.45406121
 62.09269798 63.11708905 61.88508696 68.71790134 66.31449057
 68.25502568 66.31449057 63.42593518 71.06930712 51.49591257
 61.4574491 56.85907735 58.21015443 76.37132045 56.61526745
 64.59071991 79.40349419 75.8170602 79.42900923 61.34389603
 71.16596397 61.34389603 71.18428664 62.79618797 64.53468679
 66.87476748 44.36903368 52.98513625 67.89425569 69.85447195
 74.35176072 78.31247698 79.13149145 62.17876043 78.23671891
 64.07436782 62.99814871 52.98513625 65.0240135 64.53468679
 78.94570816 76.43002814 75.9380285 67.60340584 75.9380285
 62.5897188 59.14330994 56.61526745 48.56021212 48.56021212
 64.52010691 59.07911088 59.07911088 52.38353543 59.14330994
 78.58507791 65.60680135 64.1408489 59.92917162 73.23315555
 75.366684 64.1408489 79.33859597 75.93971105 79.43468676
 79.41626385 79.34007085 79.3638835 79.41921766 61.58969777
 67.62514549 79.16139382 73.78740424 61.58969777 61.49718431
 73.47459382 65.63470467 79.02737022 71.48312676 74.62428289
 63.59749718 78.43956989 65.24290549 65.24290549 61.49718431
 74.66175121 79.31374821 79.28359141 79.29404204 79.2836621
 79.37036156 79.2274587 51.3762894 58.20653654 56.79939389
 56.79939389 59.3076951 61.00618928 61.00618928 65.5571394
 65.03667466 79.18335268 73.39892792 75.97647691 63.75761142
 79.50795082 79.30498782 76.62200226 79.37567387 75.8170602
 79.41859177 79.42359743 79.45066654 79.32348337 79.41859177
 72.43445308 74.63903085 56.52733471 72.43445308 66.78870802
 72.44286358 72.87430906 79.21960097 71.63424539 72.87430906
 66.39292402 79.47888904 56.86477139 56.86477139 54.91053482
 79.08516201 79.15820405 79.37567387 76.43473607 79.08777138
 79.19376535 79.25000665 62.5897188 65.984191 49.0122834
 60.5144664 66.15003161 68.15701408 61.69296484 65.984191
 61.69296484 68.50086895 52.62007219 71.99577902 63.87754567
 69.83456001 62.04639386 74.58456984 62.68481046 71.13594984
 53.72838471 61.81975437 67.41396036 79.42555337 79.31416007
 70.87330284 67.41396036 79.2231108 61.59393077 78.89652296
 76.35072226 71.48312676 65.45652148 80.17741576 63.87754567
 71.99577902 53.19939162 62.68481046 66.83950191 54.41671206
 65.45652148 68.22671922 77.32995753 61.81975437 76.18247046
 70.65389493 79.31148228 76.18247046 63.63141014 57.6833986
 65.72301047 60.66829559 52.32186549 62.04639386 59.72335974
 58.99325161 66.70481837 58.99325161 53.2700272 73.66673549
 56.20226734 63.45658029 57.17517379 78.51043612 57.17517379
 70.54056515 59.50255036 74.49970372 79.03279579 79.45016121
 79.24803149 79.23009818 79.23009818 79.43321802 64.50184193
 64.82903931 72.55901863 63.20671016 69.61711488 72.81873334
 63.20671016 67.48096326 76.80479739 65.00075506 65.17409125
 65.00075506 76.03988957 67.69538562 67.69538562 80.02838208
 74.99426493 63.0338716 69.29648503 68.91884145 79.26702321
 72.61304637 69.29648503 60.94495706 58.00681771 60.32797858
 73.61060264 72.54990214 62.07957204 72.00241048 79.35516381
 62.07957204 74.00101249 79.32013102 57.17792529 64.22309759
 63.18400852 68.60288933 63.18400852 72.73036527 84.1168757
 71.96196049 79.49373026 79.49079432 83.37645427 78.37145309
 79.49079432 56.32458103 63.720653 79.23535521 55.9579966
 60.20118673 55.9579966 64.66599127 65.19925696 68.05024069
 68.02672307 60.8128376 60.8128376 68.05024069 65.19925696
 63.2051056 69.16373958 60.89205368 79.62694473 77.94295033
 79.30378913 71.89221237 79.2224158 71.02402061 74.34590513
 69.93200078 61.86341135 58.21728004 59.72583577 57.17792529
 64.22309759 72.73294083 80.01232208 76.40040379 79.52025681
 72.46534535 75.45306434 71.61556466 67.13910104 76.85239131
 67.13910104 79.37054831 79.03279579 79.42917748 79.24886559
 79.28425982 79.24886559 79.43545621 74.95189966 79.58235671
 67.03612001 66.49459571 66.49459571 67.98791275 55.56525476
 79.46162459 68.53861488 70.63663872 72.8860166 70.63663872
 55.56525476 76.97555375 73.17534433 77.22304023 75.06844084
 79.4308375 76.76423638 79.32597792 79.52267144 79.47332456
 62.39601348 70.02564917 60.15226851 41.982085 58.08521095
 65.3619715 72.46534535 71.81287202 71.61556466 71.81287202
 67.9997712 72.94901155 45.03238378 57.12940187 49.83422104
 58.88206541 67.31362988 49.83422104 60.75396293 79.24780505
 72.64924516 79.45170432 84.0576886 79.46105197 76.10918574
 79.46105197 64.80698273 69.27887134 58.40660695 65.7778051
 58.40660695 69.27887134 57.13104503 76.64764728 59.80094787
 70.03720303 59.80094787 67.15306325 57.13104503 67.31348256
 67.04050146 58.12964224 75.44020482 76.3853094 72.20927138
 72.44200078 72.20927138 72.44200078 74.12492058 79.43585368
 45.03238378 60.5144664 73.78545624 68.662408 52.72965479
 60.87194478 72.9133612 72.31246461 61.2526706 66.82653322
 57.93316854 76.29418628 70.81646668 70.60864187 70.81646668
 73.67671953 75.57335784 72.43938172 78.83446889 79.28741074
 80.02567861 79.27126718 78.83446889 79.22589472 54.65291526
 70.03880641 75.68011761 69.00603252 69.00603252 72.56860221
 70.82076693 73.87480122 65.67516613 66.53599992 70.6111104
 65.67516613 76.39561245 77.95922721 72.48780167 75.68011761
 64.2208763 69.07181853 78.96813502 80.63729306 74.86355126
 70.54601685 66.31858776 70.54601685 69.54786245 76.52133856
 68.47802317 58.86492807 68.47802317 73.68210231 68.97379802
 78.60971404 74.75604715 51.70378729 71.03290969 72.32802432
 71.74300817 71.03290969 79.24845967 79.55035934 79.30184642
 79.18802114 79.30883546 79.1901697 79.18802114 67.97506074
 63.87300464 77.03770722 71.0779979 72.25794797 72.25794797
 73.42460342 70.81624899 79.24927623 72.10271114 64.13100267
 64.13100267 66.82908073 68.16936809 74.9404703 73.50138917
 67.1751289 77.03770722 79.1301413 78.72398403 79.25122659
 77.84473114 79.25066844 69.42044772 58.79402221 50.58245605
 63.5914068 66.76115125 51.70378729 66.76115125 54.2258733
 65.45497597 79.80856373 65.92487586 59.0124638 50.59380616
 60.37232119 50.59380616 65.61527249 79.12053471 79.52925715
 79.30505341 79.26356709 79.16457505 79.16457505 79.1914589
 76.9614592 79.23551627 66.15454192 66.9906587 66.9906587
 69.86279674 66.719652 81.7312212 64.32354746 63.52476519
 64.32354746 71.89744249 54.43886852 70.67216054 69.24552602
 76.45986087 73.82052522 80.17944168 76.04137552 79.2842677
 79.21436691 80.17944168 61.01459908 76.77064452 71.10291821
 62.09269798 83.89026429 74.088603 65.92487586 59.0124638
 69.92386471 77.45016965 72.25546755 78.39637327 74.68535615
 67.10141045 59.17874679 66.5179132 59.17874679 65.71317683
 67.43366645 75.37818877 55.53294784 79.24307067 78.53678064
 77.89233727 77.32664573 78.30123921 55.53294784 79.39951705
 70.21462573 68.33820981 70.21462573 68.33820981 79.49400064
 75.94058001 75.25613169 67.43366645 72.41786633 69.99853734
 73.62558028 69.66855307 73.62558028 71.64170578 75.37818877
 79.84561389 54.65291526 79.71671738 78.14747314 51.3762894 66.222081
 71.45614752 70.30661073 59.43261817 70.30661073 64.30711795
 70.46180026 70.46180026 52.32186549 53.2700272 70.46473567
 56.74145981 40.93634795 58.09129202 68.66843327 64.68113473
 52.26566615 69.89427342 79.10781302 78.94866746 79.37170203
 79.14912741 79.0283138 79.0283138 79.21767116 55.04378237
 67.00053747 75.39969932 62.99784107 66.3308264 63.69690885
 59.21845347 55.02202261 74.67185376 57.74421097 59.14396489
 70.4171687 74.23440797 64.68113473 59.14396489 59.6408086
 59.52767232 80.26522272 74.91766483 77.6146702 68.20060123
 77.6146702 68.20060123 59.6408086 69.90374732 66.81518077
 67.00053747 49.99411275 63.69690885 66.99023096 65.63393722
 61.01459908 78.40518528 68.59330779 55.67314268 64.11696677
 73.62458373 65.41851275 65.64985003 79.19635568 78.95049405
 79.42399001 79.11475051 79.27310228 79.11475051 79.29182106
 62.20907304 65.84302344 74.38397522 60.86872415 61.77033733
 54.94765616 58.57514433 69.1494646 79.34914635 67.34316854
 65.41851275 49.44253175 71.17310454 54.15802455 63.75363505
 54.94765616 75.28907652 77.29986325 78.84748711 78.75150683
 78.74984518 77.67327064 78.74785738 54.28377601 52.89980413
 54.28377601 52.38353543 53.48521011 48.49417199 48.49417199
 49.48717699 59.84266826 61.89801587 69.80612389 63.13471087
 58.97545171 69.19574248 68.27288075 54.89728172 72.15841146
 79.1973732 79.36432371 79.33821407 79.26985549 79.38829467
 79.40614675 69.37475729 59.96985552 74.12685751 46.99310194
 68.61932779 54.14618052 49.25107327 64.33494935 74.87893705
 72.11917937 57.54322427 57.54322427 66.90444451 60.55366462
 57.64575014 67.53513118 77.44851911 71.09659168 63.0338716
 64.0653317 69.77050734 64.0653317 72.96403565 68.68959984
 57.64575014 60.12885505 63.3796319 70.99027634 58.00681771
 60.14690114 62.8858283 73.61060264 74.00101249 62.39854984
 74.50388004 66.13574008 67.10802562 61.32816598 74.50388004
 68.69682359 65.76038793 78.8618073 78.54250723 79.30120824
 79.14394823 79.23152862 78.87226819 79.22589472 69.29958098
 74.67185376 56.17375302 71.83767318 56.17375302 63.85261193
 57.48156027 75.68084292 74.97585327 57.48156027 64.24802808
 67.64922487 57.08964639 58.04598943 58.04598943 78.35169976
 64.2208763 81.51799226 70.03873122 76.93436858 76.93436858
 78.68375785 69.37020944 67.10744782 61.32816598 73.68210231
 66.31858776 68.24294779 70.08948856 69.54786245 70.01350504
 55.50346687 64.88372106 74.6152963 61.47572375 70.83054461
 70.06344113 64.3476276 69.93241136 57.49287246 59.53763656
 79.2586399 78.92315983 79.36432371 79.09065155 79.15109072
 79.09065155 79.23751723 68.43877326 56.67813967 65.2825637
 57.59666131 62.243365 57.59666131 65.60897082 76.93177839
 77.18085146 77.06644544 76.93177839 63.63240637 78.5450024
 48.56357672 65.48378897 58.8793166 78.62058104 67.63219307
 78.8545845 77.59795326 78.14346275 72.61088865 77.59795326
 60.14690114 52.42166995 63.38012482 35.75167947 63.38012482
 53.17493498 56.15327592 56.15327592 54.48482659 62.0414342
 79.0865793 66.78097364 56.39164564 54.9967366 72.32170669
 67.69649604 58.51896971 79.48341139 79.10670343 79.42123909
 79.23152862 79.43117135 79.27244856 79.35298575 72.48312065
 77.2342559 74.88853214 80.24883521 61.83686205 78.93708741
 66.78097364 79.0865793 72.71904387 67.76680883 59.70875327
 77.0210703 65.6925583 68.71579085 59.70875327 80.08571735
 79.10742959 79.2403512 79.11669127 79.08072874 78.93708741
 79.57703638 72.19932212 57.6833986 67.14625849 56.39164564
 58.80636814 55.19157595 55.50346687 55.19157595 64.53959127
 58.20653654 70.14698796 74.20243901 48.37215593 59.08286299
 57.06079956 59.08286299 43.18144123 60.994699 79.55138442
 79.1973935 79.42566191 79.5179007 79.42927255 79.47563877
 79.51445232 80.0066475 79.1913053 56.15544325 76.24232337
 61.38802232 72.16556308 69.19628167 77.46971121 53.84143293
 69.19628167 53.84143293 55.04378237 56.2173955 61.33103765
 56.2173955 60.30929091 79.4355952 79.93923 79.44232334
 79.68289747 79.48167507 79.8715095 49.99411275 67.19017871
 52.80954896 43.18144123 52.80954896 63.11504549 67.49373203
 70.50830858 66.42815683 72.73294083 70.07048085 71.89022206
 65.82288989 64.16988082 56.81278738 70.1570781 56.81278738
 64.16988082 72.54202444 79.07328568 78.91463514 79.35991123
 79.21683622 79.21985069 79.05247509 79.27658131 61.31836901
 78.48385529 78.86006709 61.31836901 58.80621695 73.54160179
 75.36949858 65.2825637 62.243365 58.91496134 66.73472169
 73.03621272 60.4603857 66.73472169 58.59186291 70.08819057
 79.06800779 78.57234239 78.46506288 79.12577916 78.60477732
 78.46506288 79.78927893 52.89980413 60.01277076 67.39179208
 63.7387202 63.95853801 64.50396569 53.84031143 54.2258733
 60.01277076);

boundaryField
{
	WestWall
	{
		type fixedValue;
		value uniform 0;
	}
	EastWall
	{
		type fixedValue;
		value uniform 0;
	}
	TopWall
	{
		type fixedValue;
		value uniform 0;
	}
	BottomWall
	{
		type fixedValue;
		value uniform 0;
	}
	NorthWall
	{
		type fixedValue;
		value uniform 0;
	}
	SouthWall
	{
		type fixedValue;
		value uniform 0;
	}
}


// ************************************************************************* //