/*--------------------------------*- C++ -*----------------------------------*\
| =========                 |                                                 |
| \\      /  F ield         | OpenFOAM: The Open Source CFD Toolbox           |
|  \\    /   O peration     | Version:  5.0                                   |
|   \\  /    A nd           | Web:      www.OpenFOAM.org                      |
|    \\/     M anipulation  |                                                 |
\*---------------------------------------------------------------------------*/
FoamFile
{
    version     2.0;
    format      ascii;
    class       volScalarField;
    location    "0";
    object      quality;
}
// * * * * * * * * * * * * * * * * * * * * * * * * * * * * * * * * * * * * * //

dimensions      [0 0 0 0 0 0 0];

internalField nonuniform List<scalar>
1493(68.80586972 71.96303288 70.27680021 62.33169259 67.96917506
 67.96917506 70.6777349 58.6023766 62.35192845 67.85125232
 69.32578831 75.16660677 72.03719117 54.63723715 61.55523713
 55.74873527 67.91925177 61.80511217 68.14770123 67.2541301
 60.94573689 68.16041322 64.40295438 71.01800443 57.46881678
 69.00953077 51.15603376 54.63090041 70.93449205 57.09604337
 64.14920514 68.94352468 90.  66.14002051 77.10818253
 72.66287291 78.54054774 66.98010047 66.12509397 90.  70.65308719
 80.40391426 71.34574424 80.3639285 67.03742463 90.  61.15879832
 76.36667608 71.72487272 63.79945596 79.1470834 87.87305587
 70.18439661 71.17419222 72.01071852 60.14449857 72.46692609
 60.92377489 70.83715742 81.7313289 77.50808153 51.11664303
 83.10863568 68.32105793 71.9716643 90.  80.56935462
 71.46501553 66.38714159 81.3387778 66.73178017 90.  65.1692522
 69.19219025 58.91005539 80.12443616 52.97239179 87.7918211
 70.88583988 64.47999798 62.59738152 70.47727486 62.57490077
 61.80511217 82.27445387 69.39859925 80.68117564 70.14907034
 68.75884625 59.99689872 67.84364693 90.  62.21493367
 64.8069622 54.34058713 62.21493367 78.73520639 87.88087487
 73.8893655 64.24558875 67.02130208 74.82093429 74.87600916
 71.636174 70.91773228 61.85726012 51.84674206 73.58983896
 65.49011943 76.03782798 87.25151582 68.80586972 71.96550639
 72.36321514 76.69888304 67.24232461 61.74077837 90.  73.0652165
 69.15250584 66.88192295 75.99704925 61.28597418 87.33378249
 59.14517397 80.90234312 69.02375923 71.04552803 80.1645712
 81.99013467 80.25429017 71.96303288 67.64216821 82.71195609
 64.77162657 51.15603376 85.54169892 64.7299209 65.84328012
 75.0616839 55.22081575 55.55519334 90.  52.9196176
 58.21958511 58.21958511 59.83929492 56.37781976 83.5472323
 58.4388158 71.10838317 67.54785685 65.52390191 69.51129717
 66.38307157 82.66031645 62.54575804 73.23537599 67.934554
 64.43221147 68.56016135 84.78219038 64.87138632 77.68234989
 73.74602081 66.97494862 60.55390203 57.09604337 90.  75.96962556
 81.61877831 73.78847538 81.9550678 74.4372377 81.62196119
 67.06110871 61.85929648 68.74236026 80.98874307 65.65112939 90.
 79.18503928 71.47869445 66.75811379 82.4328409 61.62282929
 77.32066747 57.96009087 60.32092482 59.56655687 62.10908602
 59.56655687 42.43890079 83.35611602 61.49040167 61.20082071
 54.3612638 70.87043396 54.3612638 61.20082071 49.29072394
 85.76912852 67.65401723 70.20903517 66.81441553 69.42003204
 68.86407995 66.81441553 61.97770538 70.18439661 57.99043219
 60.78017174 58.34576397 57.99043219 59.33184737 71.56808439
 70.55216527 69.16133531 71.30614519 82.0943789 81.17176969
 74.44890631 85.16511948 72.30711371 73.73387376 68.32668118
 74.38334424 74.38334424 76.09778193 65.15822677 80.9735621
 63.55114996 62.7921191 54.63723715 63.2990526 62.28714099
 62.57028484 86.98454723 79.30651869 51.72264493 67.25253078
 75.00398647 70.95968819 64.68406816 72.55973525 57.21160447
 65.0764076 72.58205198 76.53300298 69.44532896 70.52678393
 77.04229851 59.96996481 58.03659865 60.11424849 61.87017042
 49.74127271 69.41348795 65.02016628 81.1906972 66.92442524
 48.19679119 52.3951639 70.73663214 52.3951639 58.86948272
 82.30275893 60.1714881 70.98465673 68.14770123 79.57978203
 77.92711381 77.83945804 79.00644604 69.00189346 63.89623967
 66.60960766 76.00196088 62.54837295 62.54837295 79.92629535
 61.57154367 54.41263099 59.2611383 71.95032507 59.2611383
 58.09047291 75.21457381 78.80449556 62.23098449 60.32092482
 68.16041322 75.04616203 67.72673082 69.21430472 85.08143218
 71.78987111 71.11826576 64.40295438 81.83376003 81.46872131
 75.92806504 74.13004201 72.58376883 55.02968773 68.46046574
 53.63283441 58.46140588 53.63283441 76.37031611 59.74269751
 65.0764076 66.15309593 66.7466056 55.35309826 66.27007011
 81.3897202 54.37134816 61.94194332 52.23946132 56.82155855
 50.01631936 62.81831284 74.49203572 67.52291867 56.56622972
 56.44129159 68.94371103 59.2468289 61.20843246 70.32099482
 66.32510048 62.46319336 54.63090041 69.53836979 54.70379862
 65.0859576 85.62930188 71.33391282 74.0351243 64.79912082
 77.72936865 78.00200019 72.78799966 88.54149676 67.06110871
 61.2649351 55.82197803 70.17550033 55.82197803 63.00998107 90.
 77.51139429 67.84374522 60.43389441 81.24078876 80.53504293
 72.67643639 74.93010209 69.16132506 62.98438373 64.80372014
 49.29072394 65.90265332 69.80600772 76.62329312 68.35352979
 69.89837765 62.02555582 73.14612903 73.77008761 72.84529093
 71.72487272 85.54171124 90.  90.  90.  90.  90.
 90.  72.35022523 58.6023766 78.06314041 66.49508586
 63.84727318 63.84727318 69.28712156 73.07004974 87.56303163
 80.91897546 74.94123102 68.94352468 80.09506456 68.07623025
 67.73148125 67.73148125 79.49571202 82.87108834 82.70487981
 78.74230427 84.45536117 82.87108834 79.4510174 59.65483328
 62.20710248 59.65483328 62.02555582 62.20710248 55.22081575
 59.98497455 67.77521576 71.30261568 74.48847332 71.54541217
 49.0583976 69.32578831 70.27813695 70.26534651 59.33184737
 84.78219035 90.  90.  90.  90.  90.  90.
 74.21697845 74.25161683 87.99157757 71.94569712 67.83789727
 62.54223333 75.9731568 73.27773315 79.25224629 80.52897012
 73.67704622 66.12509397 73.67704622 63.64341731 62.54223333
 71.34574424 81.07733754 88.53016275 78.68498102 78.16181022
 84.52081588 84.52082996 78.16181022 67.99530383 61.71042421
 55.70658448 51.36165805 40.10641928 59.34446914 49.0583976
 60.92290768 64.03778853 64.60735588 83.8088541 63.79945596
 64.93378887 63.23763367 66.72929044 66.72929044 70.22711178
 87.88086785 90.  90.  90.  90.  90.  90.
 78.79253707 86.90245676 61.15879832 71.29895659 67.85125232
 72.55879655 58.95303443 82.63734741 70.28345423 60.09946098
 60.09946098 65.74003938 58.07162911 63.4260454 74.80912883
 84.5974127 90.  85.59858949 86.34318397 87.02788173
 87.02788258 85.39831439 77.99683122 68.36734747 70.20132967
 73.58488765 67.99273329 79.36201368 58.07162911 69.25265536
 62.35192845 61.13240922 71.33906629 78.80449556 60.14449857
 59.98497455 61.79353136 60.99212637 60.99212637 63.34158251
 72.01071852 87.33378249 90.  90.  90.  90.  90.
 90.  73.61103498 86.1069117 72.97928887 71.76401526
 71.76401526 72.97928887 61.0714799 79.91303175 64.24328849
 64.30157311 61.90865313 61.08620002 66.65473515 59.20624223
 59.20624223 80.09200074 85.73132875 82.66560277 83.44689417
 86.40340737 85.25224768 85.45037379 62.94065862 63.69655256
 64.16769664 58.88754387 67.81165727 65.53545104 70.6777349
 69.01411481 74.99453429 69.01411481 64.16769664 76.545286 52.9196176
 61.90002091 61.61666997 62.84777825 68.8017294 58.21068851
 66.38714159 90.  75.87717805 90.  70.21609144
 81.19126342 70.21609144 81.19124937 66.53345305 71.56808439
 70.49245927 51.11664303 59.18348539 70.43159437 77.34680184
 82.6244903 80.75360224 76.38567328 70.7895267 85.32576141
 65.43732893 65.43732893 59.18348539 68.6302831 70.83715742 90.
 79.74090248 75.83939933 74.98246411 79.74090302 66.46593035
 65.650471 58.21068851 53.30659437 53.30659437 70.55216852
 66.68658167 66.68658167 57.48624414 64.26151334 90.  68.49714934
 70.34606559 61.55523713 76.5812792 70.64692139 70.34606559 90.
 79.73579652 90.  90.  90.  90.  90.
 68.66614202 68.32668118 90.  74.74455727 65.34944185
 65.34944185 74.41154552 72.65018612 90.  72.47930235
 71.92706996 72.47930235 79.57352029 66.43190842 66.43190842
 68.40476613 79.35716881 90.  90.  88.6883582 90.  90.
 90.  48.28766575 65.25813196 64.61377801 64.61377801
 66.73178017 69.81299916 69.81299916 73.18722971 74.4372377
 88.54149817 68.92539673 78.17190176 72.03719117 85.64115896
 80.60076944 84.227372 82.02991322 79.73579767 90.  90.  90.
 90.  90.  77.84776119 82.62449028 62.28714099
 76.72236558 69.24092413 76.57568897 79.74722833 90.  67.06147864
 73.99943093 67.06147864 74.45468517 63.86530707 63.86530707
 58.91005539 81.45345104 90.  82.02992025 85.4442458 90.  90.
 90.  66.41606227 69.28858077 52.97239179 60.1892619
 66.2348917 72.59096333 65.17817048 69.28858077 65.17817048
 72.34697892 54.95975115 71.35404149 71.33107026 57.92061979
 71.50310575 78.92511364 59.6544679 70.2348048 62.59738152
 71.52685056 74.96875958 90.  81.57198725 70.8748915
 70.8748915 81.57197325 64.51177862 88.59521452 85.2033948
 79.61057236 65.41321693 86.75497859 69.88281184 71.13552849
 55.73608354 59.6544679 64.81941764 62.57490077 65.41321693
 70.74871542 87.79181414 71.13552849 82.16517562 75.71094238
 81.97038341 75.41736709 65.75144088 62.86429619 68.20973815
 57.92061979 49.59644438 71.35368661 61.50552117 51.72264493
 64.28659868 55.66971052 52.15367991 79.13026777 58.4388158
 61.94194332 62.82472505 72.95793006 59.18725923 67.17795316
 51.84674206 83.54723227 79.79120394 90.  90.  90.  90.
 90.  61.85726012 59.97584772 72.55973525 69.39859925
 66.12007909 70.64750718 72.42563503 62.2703745 74.13942677
 71.58899827 59.18725923 68.59754545 67.54969583 59.64523084
 59.64523084 70.14907034 79.75150576 72.54955866 75.98631067
 72.54833231 80.45370645 72.67992213 75.98631067 68.36734747
 56.52750676 61.76898472 77.80105606 69.05679556 56.70900837
 66.15309593 71.70031579 56.70900837 73.07336779 82.10195209
 66.51579879 75.18937302 67.84364693 77.67543463 70.87969585
 78.39277672 70.99780548 75.91443063 90.  81.24906405
 70.35136655 70.35136655 81.2490781 63.54679282 55.69917607
 86.18105637 49.56570371 65.69855825 49.56570371 59.96996481
 72.2038054 75.65854284 64.56446644 64.6737813 62.19090855
 70.86876954 64.68468583 62.19090855 64.68468583 68.55128825 90.
 70.99780548 79.78617103 75.95196846 79.7861699 75.06454354
 74.16884981 65.10133226 70.46518605 60.54009672 54.99237374
 66.51579879 72.13419542 78.33586988 72.13419542 71.86464736
 82.06138835 70.93865873 77.29036214 63.4734644 76.81814594
 75.31607208 76.81814594 90.  79.7912034 90.  90.  90.
 90.  90.  78.60138741 81.18689939 70.14126019
 73.59097587 68.74206322 74.00941879 63.82215594 86.18105637
 65.69855825 73.96284442 67.91925177 75.94298458 62.00089497
 67.02130208 67.92913014 78.1669002 85.59858949 90.  85.3624701
 87.76138876 85.3624701 87.76141684 65.03142273 65.02016628
 58.95303443 48.19679119 56.29071504 60.01534289 69.97120105
 64.87295367 63.4734644 64.87295367 62.00089497 81.27429138
 51.71648024 62.57028484 56.67020712 68.16397919 63.97136661
 56.67020712 55.29284807 90.  75.07805823 90.  70.96022272
 81.59920379 70.96022272 81.5992178 59.59843913 75.49582744
 63.1465639 59.19238589 59.62890833 72.57516439 65.54537869
 82.21389155 66.12007909 67.54950328 55.74873527 75.09647498
 65.54537869 59.62890833 67.53845243 64.85339249 71.26934288
 85.4504721 71.7393621 71.96891341 71.26934288 71.96891341
 68.57712765 75.76578506 51.71648024 60.1892619 75.13891813
 69.47416186 60.1714881 70.98465673 70.64907648 70.64907648
 63.55115413 73.87744021 62.54575804 70.03279769 71.66123467
 77.89739989 74.86851187 72.71599768 69.02375923 82.66030241
 86.92953896 90.  87.35799667 89.35106908 88.36363899
 89.35108158 62.33073724 66.60960766 79.00644604 75.51273356
 69.26240715 78.80627442 73.57731572 73.87744021 74.7354855
 73.57731572 71.16068952 74.7354855 71.16068952 76.98113256
 73.36910283 84.92294939 73.54850537 74.89039236 81.39966382
 84.27403157 74.89039236 66.57641932 66.58409144 66.57641932
 70.13703368 71.66123467 66.34146101 63.89623967 66.34146101
 79.96097728 67.24232461 90.  73.60886073 57.03479313
 73.12211285 75.83401023 70.45315261 72.22825688 90.  88.09463116
 90.  90.  90.  90.  90.  69.15545346
 60.94573689 80.91604068 70.47870045 75.91963768 68.3877093
 76.75305582 73.60886073 90.  70.07267095 70.14674857
 61.74077837 75.44039091 63.25970145 68.3877093 66.88192295
 69.15250584 86.09779428 90.  90.  90.  86.09779428
 90.  68.46647553 61.28597418 54.41263099 65.1643848
 61.33052001 57.03479313 61.33052001 55.30329088 62.86897818
 79.92629535 66.78015324 63.43845163 54.96193783 58.34576397
 54.96193783 65.92912096 87.87305587 88.09461961 90.  90.  90.
 90.  90.  81.75399915 84.37023366 64.39953707
 71.51891869 71.51891869 74.20498325 66.78015324 80.91604068
 69.66278372 63.03641254 69.66278372 76.78203337 59.14517397
 68.38898649 64.68397258 83.98817852 84.42252907 83.79300895
 83.44689417 87.36916434 84.72815013 85.19729874 58.04741742
 78.80649548 69.05792841 58.88754387 83.52062906 69.05792841
 69.14949185 63.43845163 68.89183916 78.7108086 69.14949185
 82.96592651 76.05977625 66.71743561 64.98548303 75.49674281
 64.98548303 65.29492426 70.44552304 85.58732245 62.82342116 90.
 87.82730242 87.35799667 86.18777156 87.82729602 62.82342116 90.
 70.06068016 69.89132408 66.62907305 69.89132408 78.97721435
 84.4077393 72.36321514 70.44552304 67.64216821 72.59462649
 67.19029456 72.59462649 67.19029456 81.99013467 85.58732245
 88.34773666 62.33073724 88.3477112 87.53470885 48.28766575
 66.27721034 64.77162657 65.65172648 55.66971052 65.65172648
 62.2044205 64.43838352 64.43838352 49.59644438 52.15367991
 75.58107513 57.96009087 42.43890079 62.81656348 73.55355818
 71.80001612 58.32242199 75.18763741 90.  82.30548732 90.  90.
 90.  82.30546302 90.  61.09849937 67.05746451
 81.47193529 58.46140588 68.74236026 73.84609964 61.09849937
 62.403564 75.6664387 64.7299209 67.8499467 67.36102383
 79.10314478 71.80001612 67.8499467 60.94304917 66.90183194
 79.96014282 83.32450669 71.75936677 75.91628738 71.75936677
 75.91628738 60.94304917 63.02049294 65.53748378 67.05746451
 56.56826191 66.78328334 65.08990998 71.08347051 58.04741742
 85.12697764 66.41020899 55.69352874 64.14920514 74.23857255
 72.61901019 72.67643639 81.54906746 90.  90.  90.  90.
 90.  90.  69.72316587 71.72025916 82.68631582
 64.3629979 63.67055696 61.8416353 59.74269751 66.41020899 90.
 63.88647581 70.10550786 55.55519334 73.19541313 56.37781976
 65.19512562 61.8416353 71.26743448 87.08213046 81.54906743 90.  90.
 87.08213842 90.  62.43851505 55.69352874 62.43851505
 57.48624414 55.35309826 52.86726844 50.82180774 50.82180774
 64.26151334 69.24847687 75.08973319 65.52390191 62.03556344
 68.30900369 68.99203197 57.21160447 82.2744539 88.26401033 90.  90.
 90.  88.26401361 90.  74.31677603 64.93021591
 82.88867041 50.01631936 66.01229291 58.51895162 54.37134816
 66.6837532 77.64651723 62.90935611 61.8797955 61.8797955
 70.09811736 63.25180602 63.45562601 70.37073393 77.58155967
 79.89401639 72.54955866 71.09280346 78.90066291 71.09280346
 78.35668167 70.73444834 63.25180602 62.33169259 63.0609322
 68.60849429 56.52750676 60.41258693 65.57426446 79.739645
 75.58033029 62.98438373 83.47078687 66.94512243 75.07948804
 66.38307157 76.86825072 66.94512243 68.18634623 86.98351776 90.  90.
 90.  90.  90.  90.  67.17152066
 74.88229232 62.83697259 60.41341369 60.41341369 68.11250564
 61.27766403 83.26362151 71.3323059 62.42731222 66.57815835
 73.09251077 59.2468289 59.0670466 59.0670466 79.72222513
 73.54850537 83.26362151 76.07030758 80.87945044 77.15955723
 80.65381777 70.6191976 67.76887464 69.71156364 80.17251574
 66.58409144 56.56622972 68.09163917 70.13703368 74.43307666
 62.84782173 68.42670435 83.91592174 61.49040167 67.14553504
 69.09634081 67.62462395 69.09634081 62.81831284 67.54785685 90.  90.
 90.  90.  90.  90.  90.  76.64579031
 58.55025987 70.53327558 59.29795085 69.92928006 59.29795085
 67.80941751 74.78690001 86.78623341 79.77214984 74.78690001
 71.63608826 83.69129943 54.70379862 73.74602081 60.8323996
 84.77087058 75.05395597 90.  81.14338012 83.312264 78.8680811
 83.3122646 60.41258693 54.15206956 68.89231213 40.10641928
 68.89231213 59.34446914 62.46319336 65.98497945 60.92290768
 67.03742463 85.16509878 66.52781247 56.42819704 57.76912627
 68.72704623 57.76912627 63.8505936 90.  90.  90.  90.
 90.  90.  90.  80.92333339 85.62930188
 82.8343665 81.29987666 70.93449205 82.94627624 71.7443898 90.
 73.55606895 62.2219937 66.88542284 78.17479695 69.19416307
 73.78847538 66.88542284 85.16738014 90.  90.  88.68834823
 90.  90.  90.  80.01268813 62.86429619
 71.45325933 56.42819704 67.57000767 62.03040761 62.84782173
 62.03040761 64.79912082 65.25813196 78.19304882 66.42741761
 51.06986558 60.98779897 58.43038292 60.98779897 47.6140334
 65.84328012 90.  90.  90.  90.  90.  90.
 90.  80.23518866 90.  62.41113577 72.3949216
 63.99684898 75.4275104 76.32403397 81.47193529 58.32245359
 76.32403397 58.32245359 61.81753832 61.66795252 68.74745739
 61.66795252 61.85929648 81.62194718 87.00670936 90.  90.  90.
 87.00667947 56.56826191 74.44217613 54.38258763 47.6140334
 54.38258763 69.89151003 65.65112939 61.2649351 68.02669927
 78.40065339 80.72555448 70.32099482 59.98714689 51.82579212
 55.94685047 68.78675096 55.94685047 55.2054876 75.5476673 90.  90.
 90.  90.  90.  90.  90.  67.81463558
 90.  75.59196621 67.81463558 61.58826718 80.35068534
 71.79548032 70.53327558 70.41243364 67.23163633 67.16606221
 73.00448018 69.54681613 67.16606221 61.58826718 71.71019398 90.
 82.55563695 90.  90.  90.  82.55564108
 74.1670253 57.78221834 59.98714689 51.82579212 64.02825801
 66.21005137 67.31115187 60.43389441 55.30329088 61.62282929);

boundaryField
{
	WestWall
	{
		type fixedValue;
		value uniform 0;
	}
	EastWall
	{
		type fixedValue;
		value uniform 0;
	}
	TopWall
	{
		type fixedValue;
		value uniform 0;
	}
	BottomWall
	{
		type fixedValue;
		value uniform 0;
	}
	NorthWall
	{
		type fixedValue;
		value uniform 0;
	}
	SouthWall
	{
		type fixedValue;
		value uniform 0;
	}
}


// ************************************************************************* //