/*--------------------------------*- C++ -*----------------------------------*\
| =========                 |                                                 |
| \\      /  F ield         | OpenFOAM: The Open Source CFD Toolbox           |
|  \\    /   O peration     | Version:  2.4.x                                 |
|   \\  /    A nd           | Web:      www.OpenFOAM.org                      |
|    \\/     M anipulation  |                                                 |
\*---------------------------------------------------------------------------*/
FoamFile
{
    version     2.0;
    format      ascii;
    class       volVectorField;
    location    "0";
    object      deformation125;
}
// * * * * * * * * * * * * * * * * * * * * * * * * * * * * * * * * * * * * * //

dimensions      [0 1 0 0 0 0 0];

internalField   uniform (0 0 0);

boundaryField
{
    TopWall
    {
        type            fixedValue;
        value           uniform (0 0.001 0);

    }
    BottomWall
    {
	type            fixedValue;
        value           uniform (0 0 0);

    }
    NorthWall
    {
	type            empty;
    }
    SouthWall
    {
	type            empty;
    }
    WestWall
    {
	type            empty;
    }
    EastWall
    {
	type            empty;
    }
}


// ************************************************************************* //
