/*--------------------------------*- C++ -*----------------------------------*\
| =========                 |                                                 |
| \\      /  F ield         | OpenFOAM: The Open Source CFD Toolbox           |
|  \\    /   O peration     | Version:  5.0                                   |
|   \\  /    A nd           | Web:      www.OpenFOAM.org                      |
|    \\/     M anipulation  |                                                 |
\*---------------------------------------------------------------------------*/
FoamFile
{
    version     2.0;
    format      ascii;
    class       volScalarField;
    location    "1";
    object      quality;
}
// * * * * * * * * * * * * * * * * * * * * * * * * * * * * * * * * * * * * * //

dimensions      [0 0 0 0 0 0 0];

internalField nonuniform List<scalar>
1493(66.99671106 70.95645613 71.22190005 61.29882299 64.69078216
 64.69078216 67.85905792 57.56388904 60.09751018 65.41753842
 67.64201554 72.46273839 67.74627295 52.73973489 60.74490156
 59.23129678 71.1012028 64.42352161 74.06804809 68.60844423
 62.47160425 70.92052732 67.13065302 71.13305403 55.56171711
 67.40584676 50.72260205 53.20338129 66.12011737 55.99047766
 64.20905864 64.74250156 84.26428887 64.13836053 79.65379552
 71.66415796 78.78206313 62.84401543 61.7175945 84.35873872
 66.66211813 77.31102852 71.68611401 77.63528601 64.49857265
 84.41303891 57.95946849 77.21619089 67.25790626 62.93090529
 83.99613831 84.26567738 71.66318628 74.54972978 67.57934778
 59.32761064 69.42052768 59.91402051 70.83656799 78.3466939
 82.31159295 47.55765938 81.07056861 65.15235441 67.88265817
 84.46689162 80.5705951 75.76288769 65.53973393 80.01403989
 62.81636714 84.36623511 67.07523002 71.22556756 57.01604258
 79.85443057 50.98169083 82.30823091 69.4892437 62.76941253
 57.84748708 69.1051962 58.25368047 64.42352161 76.7476312
 71.20294841 77.94625501 75.31598271 71.32167992 65.87879128
 70.76025134 84.51663123 66.47904396 66.66716524 58.32086367
 66.47904396 75.35636121 82.29046126 75.41037841 65.88753923
 72.30769394 69.80555547 76.46723635 78.54935623 70.02207896
 59.28542718 55.97210077 70.35609428 65.85551366 78.66324544
 83.69186853 69.68598465 70.95645613 73.63334067 73.0451413
 68.13553025 64.10895274 84.06794251 73.32641361 68.59619936
 68.92243979 73.71076605 63.94036345 81.69360711 56.72982692
 78.87954456 72.38891296 66.72361062 80.62846309 76.39217241
 80.26326725 75.05409619 66.99671106 80.26326725 68.20508373
 50.72260205 84.42468256 61.10927192 63.72489701 76.21277858
 54.68674136 52.40770909 84.35530191 52.21929693 63.63768132
 63.63768132 57.05738025 55.26105075 78.98140645 57.63153519
 72.47629966 63.4040843 64.31200734 69.57129802 64.11490652
 77.26283054 60.31771874 73.13598934 64.43768263 63.66528529
 70.33534556 84.31481199 64.64524694 73.6030328 73.51943132
 64.80640974 56.62146505 55.99047766 84.3711226 80.34996637
 77.55039634 73.36010848 78.3946388 69.4603425 84.45023917
 68.93815137 61.10985778 64.84505568 80.82706187 66.88440148
 84.23835985 79.39959267 70.68769826 62.48206443 81.46678439
 62.55863505 73.85314318 57.37492077 56.68324486 61.07900424
 59.00001441 65.71049961 41.69196251 83.3216213 61.55017471
 57.9197172 59.56460892 70.63761673 59.56460892 57.9197172
 46.40245272 80.45408656 64.19025792 66.30386382 64.96330798
 69.42071527 70.51556301 66.30386382 67.65832114 71.66318628
 64.0232415 63.08299775 62.8185186 64.04217822 63.08299775
 69.77213635 69.56520451 68.44006012 70.5439669 82.08249929
 77.25360133 70.98264443 84.29731141 70.99032473 73.74879014
 68.00583453 75.93931323 75.93931323 74.62907109 62.03298348
 75.75589275 63.30963556 60.64597522 52.73973489 63.11903318
 59.39419628 59.78020872 83.40923743 81.75854254 58.00513306
 64.2248423 74.70899608 70.72979768 68.08513191 72.43641877
 56.20628944 65.42140513 76.21141741 72.43641877 71.24551826
 71.69552227 72.14381533 63.44561023 54.7389624 59.47955914
 65.75857051 53.11508041 66.16921744 67.79911153 81.13986623
 63.00355465 44.91643197 49.18238232 68.50421991 49.18238232
 60.98471439 81.7873105 56.30287214 65.61923091 72.8636097
 75.52363347 72.8636097 77.87241947 79.1644462 67.44976398
 61.32103106 67.44976398 71.66939115 60.21938523 60.21938523
 80.27095567 60.26341603 52.47743717 56.92903703 70.87549689
 56.92903703 57.85620027 75.23984944 77.24661297 58.69697237
 56.68324486 66.02082433 71.22531514 68.72672031 66.02082433
 84.61983861 67.85918105 71.60862104 67.13065302 78.85057282
 78.85057282 76.44769296 74.7384583 72.97505117 53.81265248
 67.81928452 51.1360565 61.25467076 51.1360565 76.61428224
 59.16484615 65.42140513 69.9154435 63.10607482 54.43390957
 64.44733988 77.64144628 51.74289104 63.21379347 51.23101813
 56.10307612 48.59884648 60.17743481 70.71554007 66.14148524
 62.57663938 55.22498896 67.81012194 58.19058412 63.61301039
 72.37827201 65.89546714 62.01113359 53.20338129 66.12683337
 51.47163833 62.01113359 81.43984265 69.70833284 73.62508171
 64.72663073 78.20980633 77.56479788 69.43381802 84.12095404
 68.93815137 65.00333092 55.70746128 70.02970769 55.70746128
 65.00333092 83.85490961 75.80800158 63.71710368 57.04981017
 80.35965364 76.22181541 73.8926508 69.59661183 68.44006012
 63.54101229 66.4962254 46.40245272 60.79236619 69.82057612
 77.17954797 66.85220594 68.82573188 62.35920688 73.8081191
 73.30112734 67.90045211 67.25790626 84.43628765 84.30849431
 84.4071804 84.26428887 84.39949248 84.27512754 84.32598549
 69.59306337 57.56388904 73.85314318 66.97196565 64.35325393
 63.9850106 69.9662924 78.57034819 82.91147599 80.85934318
 80.04044149 64.74250156 80.04044149 66.383457 63.9850106
 66.38917966 78.69445952 80.53158526 82.7046001 78.96876306
 84.33486839 80.58030833 85.24845127 57.54785789 58.49085709
 57.54785789 62.35920688 58.49085709 54.68674136 58.5882612
 68.88886928 69.46650012 73.34624438 71.18775443 49.10420554
 67.64201554 70.22422764 70.61897443 62.84392864 84.30315149
 84.35467478 84.39888587 84.35873872 84.39150214 84.38414779
 84.38060294 70.52271964 71.37809808 82.28566274 73.11917479
 67.48863698 59.25729044 75.71461872 74.22457482 73.34624438
 81.28571954 73.31628885 61.7175945 73.31628885 61.89046932
 59.25729044 71.27549613 82.17146857 84.38355274 78.68476485
 72.93315454 78.98091903 79.22760921 72.93315454 63.89743031
 61.657678 53.7198363 50.17181269 37.82196067 58.73744046
 49.10420554 57.61396934 60.49213294 62.02695325 83.61144346
 62.93090529 64.59935605 61.53789501 65.77934077 63.00355465
 72.0753369 82.30896339 84.36148954 84.39888587 84.41303891
 84.39316581 84.41634048 84.41117057 78.61569006 81.40307163
 57.95946849 73.35861052 66.8275805 72.8239235 60.15211775
 82.28566274 74.77760676 58.48229337 58.48229337 63.05238706
 57.44820212 60.20714418 70.95812904 84.30182332 84.4237931
 80.05156192 81.63040881 83.87222121 83.72190655 83.87222121
 74.29224186 64.79295159 70.16255799 72.130645 64.96330798
 76.87077467 57.44820212 69.26239418 60.09751018 60.07012697
 72.04909437 76.43150736 58.69697237 58.5882612 61.43062192
 60.24377385 59.02412961 63.20706162 68.40404191 81.71923234
 84.0474005 84.38146941 84.30671345 84.29485703 84.09524003
 84.3480333 73.61809465 80.40752662 74.82411288 74.50223539
 74.87814845 74.82411288 61.13313046 80.70302749 66.81102128
 64.9535801 60.63432127 59.02412961 64.9535801 58.36812901
 58.36812901 80.03688898 86.13240282 78.80569078 80.95371468
 83.33696482 85.13431496 83.33696482 65.08862231 62.24151913
 64.30458782 60.82652235 65.61976441 64.07892052 70.0063889
 67.91122363 71.57857408 67.91122363 64.30458782 75.75589275
 52.21929693 61.6845765 59.20414628 60.64597522 72.99399946
 57.39796676 65.53973393 84.43128051 76.8038154 84.44169171
 65.51442338 75.9005388 65.51442338 75.90490922 64.63193819
 68.30018307 68.64712555 47.55765938 56.02926748 69.18192715
 73.73591151 78.75185093 82.31159295 79.09316158 66.23987793
 83.77800182 64.80601549 64.80601549 56.02926748 67.03552861
 68.30018307 84.1787598 79.05386801 76.94902904 71.34333981
 78.8628822 67.69556188 62.37296388 57.39796676 50.93063316
 50.93063316 68.06229882 62.70235163 62.70235163 54.86377891
 62.01378379 83.95153942 67.05617579 67.3514091 60.74490156
 77.76808612 74.68459728 67.3514091 84.39189337 78.71983885
 84.44254089 84.43642378 84.39515906 84.41070064 84.43778531
 65.13449441 68.00583453 84.29731141 74.28035206 65.13449441
 65.34271717 73.95739677 69.14485757 84.20806303 72.35201405
 74.68459728 67.88265817 79.02432847 65.84414249 65.84414249
 65.67575901 78.21922912 84.38029689 84.36738269 84.37315855
 84.36876719 84.40806974 84.33742696 50.01316166 61.71186885
 60.51308506 60.51308506 62.81636714 65.08644455 65.08644455
 70.30204766 69.4603425 84.03853437 72.78884891 80.80908453
 67.74627295 84.23598934 82.10015295 80.9484578 84.41520399
 78.67684587 84.43484282 84.43846661 84.45544932 84.38302914
 84.43484282 76.80287548 78.89531961 59.39419628 75.51537262
 68.08820512 75.04903543 76.95457289 84.32859188 71.22556756
 76.95457289 67.55882437 78.14427612 60.22859038 60.22859038
 57.01604258 80.9690673 84.29797755 84.41520399 81.11134689
 84.25451961 84.30991478 84.34223983 67.69556188 67.71476325
 50.98169083 61.05456965 66.24973115 70.34522674 63.53934051
 67.71476325 63.53934051 71.98437961 54.13229725 72.5851337
 67.57942053 64.06294515 66.49282987 76.70925366 61.63502749
 73.45499378 57.84748708 66.35778382 71.24192573 84.4416175
 81.57735285 70.87441114 70.87441114 81.57735285 63.04701822
 84.13206399 80.78219126 75.67588993 65.43541298 85.19996998
 67.57942053 71.95194735 54.64223096 61.63502749 69.68466682
 58.25368047 65.43541298 69.48809769 82.28542211 66.35778382
 79.97333133 74.82206185 82.20773055 75.97293658 64.69212112
 60.21139091 66.99128309 61.4419876 51.21317049 66.49282987
 60.61803573 58.00513306 66.06728855 57.81309332 52.97510255
 77.64144628 57.63153519 63.21379347 60.51055499 78.58277205
 60.51055499 69.00636314 55.97210077 78.92637701 79.42129909
 84.45686184 84.35405 84.34323529 84.34323529 84.45231855
 63.31107682 62.5998477 72.55973729 67.56412956 68.01945181
 75.68864894 67.56412956 65.11669444 76.7922881 68.5135558
 62.4259669 68.5135558 72.71295169 64.04888332 64.04888332
 75.31598271 79.86783488 67.49655087 72.78576781 71.32167992
 80.39066617 72.64584752 72.78576781 64.79295159 57.84260535
 61.59098212 78.55965945 72.43478897 59.77521084 69.9154435
 76.82671897 59.77521084 74.95310142 81.59936545 61.56305961
 69.33689231 68.05642972 73.03521242 68.05642972 77.64871671
 77.85065071 75.6685765 84.47921797 84.48326776 77.15007336
 77.15007336 84.48326776 59.77882301 60.04887421 84.34118414
 53.11508041 64.31750949 53.13865582 63.44561023 68.96194444
 71.8131013 66.41211556 63.13691294 63.13691294 71.8131013
 68.96194444 63.93704797 70.5893809 64.5997647 84.55984067
 77.81814436 79.78894243 75.61167678 79.78894243 74.98218093
 79.32161372 70.82754734 66.09368189 59.47955914 57.89108895
 61.56305961 69.33689231 76.49281486 78.12410985 75.10487556
 82.05632517 72.20849331 77.32586275 67.95385817 71.76971517
 76.17555864 71.76971517 84.41861294 79.42129909 84.44496595
 84.35411805 84.37419575 84.35411805 84.45216686 77.83168 81.13608992
 71.29544405 70.29963478 70.29963478 71.29544405 59.43098639
 84.46624786 67.25796124 73.8026778 72.56173874 73.8026778
 59.43098639 72.30769394 71.18419865 78.9008529 80.05156192
 84.45374104 81.63040881 84.39586297 84.55903043 84.47278994
 64.25072676 67.79911153 60.15211775 44.91643197 60.07012697
 62.92972668 75.66547306 69.02561566 67.95385817 69.02561566
 65.5037399 77.22012196 48.18224798 59.78020872 53.13746049
 63.25428034 65.79501613 53.13746049 58.23034668 84.35293236
 75.53181295 84.4545481 77.80149055 84.46737621 75.2386894
 84.46737621 65.33225123 72.52972037 61.03046174 65.09670423
 61.03046174 72.52972037 61.19382768 81.22340189 63.72598715
 68.91213845 59.23129678 71.11614601 61.19382768 64.87572616
 68.58533589 61.43902658 74.37720425 81.09074018 72.02908742
 72.26134134 72.02908742 72.26134134 72.33163772 79.80193142
 48.18224798 61.05456965 75.7706412 69.46762982 56.30287214
 65.61923091 71.91558287 71.91558287 63.00480087 70.71554007
 60.31771874 74.72481286 74.24414926 74.64443864 74.47326331
 73.39213072 72.38891296 77.25245844 83.59114778 84.36326695
 85.03032083 84.35189149 83.59114778 84.32869301 58.25773989
 68.35667702 79.1644462 72.18992573 70.95666971 75.84969224
 73.95507327 73.87681299 69.95637547 70.67309293 73.86692917
 69.95637547 73.86692917 77.59506391 73.63334067 80.4649609
 68.59627487 73.0451413 81.40625305 84.42165955 74.88108957
 68.74716031 66.80840651 68.74716031 70.35768928 74.24414926
 67.48017903 61.32103106 67.48017903 76.81527854 68.13553025
 83.97526415 74.23612646 54.26021563 73.69805614 74.52872525
 71.15386761 72.6900116 84.34402766 84.50388746 84.3722802
 84.30631527 84.37834371 84.30631527 84.30668215 68.92243979
 62.47160425 81.38012797 70.80471758 74.39932879 71.72600977
 75.58039206 73.71076605 84.32913561 71.17386806 67.02972746
 64.10895274 70.93531517 65.80471902 71.72600977 70.2860744
 68.59619936 81.91736432 84.27327846 84.03567264 84.33565505
 82.33034792 84.32734897 68.97227048 60.26341603 52.47743717
 64.39173342 64.13757305 54.26021563 64.13757305 54.95617808
 64.21689372 80.27095567 66.77667758 61.19609568 52.72118019
 62.8185186 52.72118019 65.80862023 84.26567738 84.48858366
 84.37249166 84.34373228 84.28886323 84.28886323 84.3070431
 80.43854253 84.33278878 65.34273897 69.38743778 69.38743778
 72.3866044 66.77667758 81.38012797 67.01133379 63.32436611
 67.01133379 76.14801578 56.72982692 69.5855576 67.0650654
 80.40210369 78.80569078 85.20960504 80.74370284 84.35080139
 84.28992926 84.79668277 59.87180121 78.84690607 72.17406757
 60.82652235 85.28903559 72.17406757 68.5452365 61.19609568
 69.48686395 79.01161388 71.18670374 83.20470096 76.04651189
 66.93807749 61.98192219 70.7538646 61.98192219 65.52853857
 69.18292289 80.21019094 58.96725143 84.33758014 83.31948861
 82.71389662 81.86874199 83.18516879 58.96725143 84.40623296
 70.55423622 69.61277053 70.05598739 69.61277053 79.27617754
 81.05004451 73.92063544 69.18292289 70.0940662 71.86957717
 70.54691494 71.86957717 70.54691494 76.52898263 80.21019094
 84.68951288 58.25773989 84.58419989 83.09802235 50.01316166
 68.3107553 68.20508373 68.06260003 57.81309332 68.06260003
 64.35200351 67.53042998 67.53042998 51.21317049 52.97510255
 73.51661489 57.37492077 41.69196251 60.3754307 71.47466605
 68.22639493 55.24678968 74.24670894 84.26073219 82.02017391
 84.41123394 84.29007218 84.21663904 82.02017391 84.32326118
 58.36678262 67.0369268 80.52311223 61.25467076 67.55898913
 68.43186569 60.19790071 58.54561945 76.08665483 61.10927192
 63.20683781 69.57020355 78.68424536 68.22639493 63.20683781
 60.31770463 63.15757436 82.7046001 79.34726455 75.62079041
 72.13405326 75.62079041 72.13405326 60.31770463 67.1875207
 66.2455054 67.0369268 53.12585649 65.25307591 66.61796326
 68.56268176 59.87180121 83.85490961 68.47831315 55.69163604
 64.20905864 75.7124165 69.06130688 69.83872814 81.5459202
 84.18827125 84.44254131 84.27547631 84.3647504 84.27547631
 84.36992667 65.91846068 68.88900591 78.81280295 62.59547432
 62.73364939 58.34430125 59.16484615 68.47831315 84.38321914
 66.3557651 69.06130688 52.40770909 72.18547081 55.26105075
 65.35124857 58.34430125 76.62269249 82.27141994 81.5459202
 84.08275419 84.08049221 82.46791934 84.07434828 58.10304943
 55.47795479 58.10304943 54.86377891 54.43390957 50.81189746
 50.27439536 50.27439536 62.01378379 65.50300033 74.22253888
 64.31200734 60.4849268 69.18535285 68.65700552 56.20628944
 76.93858941 84.31926605 84.41000708 84.39808414 84.36068744
 84.42549226 84.43539213 73.6030328 62.56732354 78.30315472
 48.59884648 67.9040219 56.40192145 51.74289104 65.79777359
 78.04231024 68.01602665 59.84768551 59.84768551 68.72527222
 62.19875415 60.59576883 71.34805679 77.65803458 75.28268752
 67.49655087 67.52724333 74.12094381 67.52724333 77.44058121
 72.99716098 60.59576883 61.29882299 63.78662755 70.37021608
 57.84260535 60.3535459 64.70742404 78.55965945 76.12265554
 63.54101229 79.4661409 68.75973004 71.99117581 64.11490652
 76.88560628 68.75973004 68.30307583 83.69186853 83.94734263
 84.37062238 84.280994 84.33318594 84.13313686 84.32869301
 71.03119469 75.43098931 59.40161048 66.33903316 59.40161048
 66.14148524 60.03882362 81.10533631 74.16759318 60.03882362
 65.40826037 70.6053126 58.19058412 58.88297226 58.88297226
 79.55818737 68.59627487 83.69858112 73.36320137 80.03874429
 78.2606278 81.03129057 72.02618226 67.7332746 65.51375207
 76.81527854 66.80840651 62.57663938 69.47000434 70.35768928
 72.36360661 59.07536498 68.65498381 79.0342646 61.55017471
 69.47978262 70.15351095 66.30407079 70.15351095 60.17743481
 63.4040843 84.35133444 84.17096027 84.41000708 84.2608133
 84.29366935 84.2608133 84.34065253 72.39717736 57.91132121
 68.18475005 58.50089829 66.12102179 58.50089829 66.74285836
 77.20262777 81.75024104 79.60890944 77.20262777 67.40584676
 83.49649765 51.47163833 70.10957668 59.86458459 83.46677442
 71.41053269 84.12491809 81.50791012 81.74677599 76.71946712
 81.50791012 60.3535459 53.49963086 66.13418558 37.82196067
 66.13418558 56.62146505 60.67948029 60.67948029 57.61396934
 64.49857265 84.25743994 69.54471611 56.43431315 57.00621955
 73.43258463 62.88448527 61.23548807 84.47482769 84.26324664
 84.43643772 84.33318594 84.44466627 84.35780507 84.39969095
 76.87160208 81.88764152 79.53741914 82.34910417 66.12011737
 82.44275222 69.54471611 84.25743994 73.14524744 65.60185372
 63.22208483 77.60227224 67.46324602 72.58555677 63.22208483
 83.98770708 84.2681438 84.34116521 84.2732423 84.25394762
 84.17511054 84.52529043 78.00047311 60.21139091 70.8127346
 56.43431315 62.90491126 58.55389684 59.07536498 58.55389684
 64.72663073 61.71186885 74.07175616 70.49252036 49.82166404
 60.05227078 57.7766112 60.05227078 45.38430151 63.72489701
 84.51663123 84.31670861 84.44133502 84.49444361 84.44663499
 84.47235083 84.49056709 80.11610446 84.31585336 59.25213442
 75.08799101 62.73218322 74.42709794 72.86219141 80.52311223
 56.13598735 72.86219141 56.13598735 58.36678262 59.00941684
 64.84505568 59.00941684 61.10985778 84.45023917 84.72683153
 84.4528018 84.5863558 84.47526722 84.68958009 53.12585649
 70.81570338 53.69973677 45.38430151 53.69973677 67.29525854
 66.88440148 66.91203797 67.65712499 76.49281486 75.35636121
 72.37827201 63.52497527 59.88182299 56.4409805 69.5568977
 56.4409805 60.38419284 75.39049555 84.23587879 84.16449284
 84.40650789 84.32571898 84.33079915 84.24136804 84.36011232
 64.59365798 83.90644378 80.24706764 64.59365798 60.92316049
 77.67250776 74.69387824 68.18475005 66.12102179 62.96103474
 66.98904628 74.01441307 64.74358845 66.98904628 60.92316049
 70.90890057 84.23835985 82.49442783 83.89108977 84.26393851
 83.97405448 82.49442783 77.8129827 55.47795479 61.31399698
 59.88182299 65.10682975 65.09328211 66.06009181 57.04981017
 54.95617808 61.31399698);

boundaryField
{
	WestWall
	{
		type fixedValue;
		value uniform 0;
	}
	EastWall
	{
		type fixedValue;
		value uniform 0;
	}
	TopWall
	{
		type fixedValue;
		value uniform 0;
	}
	BottomWall
	{
		type fixedValue;
		value uniform 0;
	}
	NorthWall
	{
		type fixedValue;
		value uniform 0;
	}
	SouthWall
	{
		type fixedValue;
		value uniform 0;
	}
}


// ************************************************************************* //